Gold/MoS2 Heterstructure

1590 atoms
4 atom types

0.0000000000000000  58.8914324717252724 xlo xhi
0.0000000000000000  34.0009843906191668 ylo yhi
0.0000000000000000 100.0000000000000000 zlo zhi

Masses

1 196.97
2 32.065
3 95.95
4 32.065

Atoms # full

       1         1         1         0     26.1701371033909990     14.1671777260520000     25.2910000000000000
       2         1         1         0     55.6158533550470010     31.1676699019439990     25.2910000000000000
       3         2         1         0     25.3513018690160020     12.7439858327109990     27.6046106347090010
       4         2         1         0     54.7970181383720030     29.7444779897050000     27.6046106382080010
       5         3         1         0     27.0050842584230000     15.5815640235980000     29.9211711005490000
       6         3         1         0     56.4508005095799990     32.5820561243910020     29.9211711034830010
       7         1         1         0     23.7127877583830010     12.7536558949379990     25.2910000000000000
       8         1         1         0     53.1585040226869980     29.7541481081449990     25.2910000000000000
       9         2         1         0     22.8963492052929990     11.3262303144680010     27.6059567588300010
      10         2         1         0     52.3420654895620030     28.3267225075400010     27.6059567640419980
      11         3         1         0     24.5686944559099980     14.1504258049770010     29.9236549768980000
      12         3         1         0     54.0144107284129970     31.1509179436610000     29.9236549821990000
      13         1         1         0     21.2562204555949990     11.3410444581530000     25.2910000000000000
      14         1         1         0     50.7019367330680030     28.3415367075550010     25.2910000000000000
      15         2         1         0     20.4431916651410010      9.9101933159659996     27.6088832992430010
      16         2         1         0     49.8889079619159970     26.9106855462829980     27.6088833047270010
      17         3         1         0     22.1301908289350000     12.7139209471820000     29.9286683197470000
      18         3         1         0     51.5759071197229990     29.7144131211289990     29.9286683269660010
      19         1         1         0     18.8014419595429980      9.9283242254689998     25.2910000000000000
      20         1         1         0     48.2471582481949990     26.9288165083300020     25.2910000000000000
      21         2         1         0     17.9920043887560010      8.4954605724560004     27.6118600902690010
      22         2         1         0     47.4377206928690000     25.4959528404530000     27.6118600934539980
      23         3         1         0     19.6846453702780020     11.2780319827790000     29.9351900191350000
      24         3         1         0     49.1303616723240000     28.2785241928350000     29.9351900264680000
      25         1         1         0     16.3487177120160010      8.5146761144580001     25.2910000000000000
      26         1         1         0     45.7944340070170030     25.5151684260039990     25.2910000000000000
      27         3         1         0     17.2304878589760020      9.8460957179699999     29.9405269778990010
      28         3         1         0     46.6762041647410020     26.8465879673339990     29.9405269820159990
      29         1         1         0     23.7172293376840000      9.9216506532509996     25.2910000000000000
      30         1         1         0     53.1629456147869990     26.9221428616349990     25.2910000000000000
      31         2         1         0     22.8964935331180010      8.4920108699040000     27.5985068568040010
      32         2         1         0     52.3422098271249960     25.4925030593620010     27.5985068611890010
      33         3         1         0     24.5465496023840010     11.3051273965440000     29.9191054144769990
      34         3         1         0     53.9922659058360000     28.3056195308249980     29.9191054215370010
      35         1         1         0     21.2603861653590020      8.5096596247429996     25.2910000000000000
      36         1         1         0     50.7061024513360010     25.5101518689860000     25.2910000000000000
      37         2         1         0     20.4438483418730000      7.0778981580100000     27.5979300689899990
      38         2         1         0     49.8895646419530010     24.0783903867400010     27.5979300736179990
      39         3         1         0     22.1065006458080010      9.8669257559049992     29.9208617785300000
      40         3         1         0     51.5522169610639980     26.8674179269829980     29.9208617873820020
      41         1         1         0     18.8046317370590010      7.0964651622380002     25.2910000000000000
      42         1         1         0     48.2503480283919970     24.0969574404650010     25.2910000000000000
      43         2         1         0     17.9931354705630010      5.6644136835480001     27.5982411900580010
      44         2         1         0     47.4388517702830010     22.6649059521880010     27.5982411921450000
      45         3         1         0     19.6642118055810010      8.4348239316109996     29.9246439893079990
      46         3         1         0     49.1099281241270020     25.4353161437670000     29.9246439974869990
      47         3         1         0     17.2174298404709990      7.0107048485380004     29.9276688426770010
      48         3         1         0     46.6631461546489990     24.0111971067450010     29.9276688462860000
      49         2         1         0      3.2758019403610001     31.1652547281319980     27.6071447702570010
      50         2         1         0     32.7215181602690000     14.1647626691709990     27.6071447731069990
      51         1         1         0     21.2654495849000010      5.6758483813889997     25.2910000000000000
      52         1         1         0     50.7111658668099990     22.6763406192729990     25.2910000000000000
      53         2         1         0     20.4459737561529980      4.2468222324529998     27.5873798998640010
      54         2         1         0     49.8916900437950020     21.2473144585469990     27.5873799024330000
      55         3         1         0     22.0819620528530010      7.0333649572020001     29.9114876077800000
      56         3         1         0     51.5276783732170000     24.0338571250179990     29.9114876150269990
      57         1         1         0     18.8080130277679980      4.2607900095600000     25.2910000000000000
      58         1         1         0     48.2537293083230030     21.2612822824080010     25.2910000000000000
      59         3         1         0     19.6460787583100010      5.6091350403189999     29.9110322901549990
      60         3         1         0     49.0917950733119990     22.6096272545620000     29.9110322965020000
      61         2         1         0      5.7318972312290004     29.7488218862580000     27.6116766506520010
      62         2         1         0     35.1776134403880010     12.7483298464730000     27.6116766577229990
      63         1         1         0      4.0935763405039998     29.7418669581230010     25.2910000000000000
      64         1         1         0     33.5392925544400030     12.7413748840730000     25.2910000000000000
      65         3         1         0     19.6344167458030010      2.7996755001069999     29.8984975427460000
      66         3         1         0     49.0801330354079970     19.8001677161290000     29.8984975455860000
      67         2         1         0      8.1864355955079997     28.3331923710960010     27.6175035933190000
      68         2         1         0     37.6321517928570020     11.3327003379170000     27.6175036024180010
      69         1         1         0      6.5464346665570003     28.3212300676189980     25.2910000000000000
      70         1         1         0     35.9921508702559980     11.3207380149970000     25.2910000000000000
      71         2         1         0      5.7291041454430003     26.9157479495609980     27.6220995038460020
      72         2         1         0     35.1748203415530010      9.9152559077350002     27.6220995125350020
      73         3         1         0      4.8888630504390003     28.3932901643820020     29.9328910095290010
      74         3         1         0     34.3345792421620000     11.3927981473829990     29.9328910161670020
      75         2         1         0     10.6392137025690000     26.9182081881359990     27.6228224188450010
      76         2         1         0     40.0849298890390030      9.9177161478719995     27.6228224262969990
      77         1         1         0      8.9974829069509994     26.9022629442880010     25.2910000000000000
      78         1         1         0     38.4431991009230030      9.9017709022700000     25.2910000000000000
      79         2         1         0      8.1832999656270005     25.5014948715409990     27.6295290786910000
      80         2         1         0     37.6290161550659970      8.5010028339920005     27.6295290866980000
      81         1         1         0      6.5483844487670000     25.4872018946190020     25.2910000000000000
      82         1         1         0     35.9941006446539970      8.4867098449389999     25.2910000000000000
      83         3         1         0      7.3536823985520003     26.9942526183450010     29.9411924177560000
      84         3         1         0     36.7993985872750000      9.9937605944100003     29.9411924258130000
      85         2         1         0     13.0906372988029990     25.5034899566900000     27.6258784742889990
      86         2         1         0     42.5363534780959970      8.5029978968289992     27.6258784780179990
      87         1         1         0     11.4473652478810010     25.4853369364520010     25.2910000000000000
      88         1         1         0     40.8930814352300020      8.4848448934319993     25.2910000000000000
      89         2         1         0     10.6366732667900000     24.0868852003080000     27.6344080462760000
      90         2         1         0     40.0823894522959990      7.0863931538909997     27.6344080514939990
      91         1         1         0      8.9984181906330001     24.0705891359000010     25.2910000000000000
      92         1         1         0     38.4441343826879990      7.0700970956429998     25.2910000000000000
      93         2         1         0      8.1804070547670005     22.6692436205830000     27.6384774144239990
      94         2         1         0     37.6261232494180010      5.6687515776449997     27.6384774198360010
      95         3         1         0      9.8257229102120007     25.5838945471910010     29.9478856100449990
      96         3         1         0     39.2714390970370030      8.5834025017739997     29.9478856156239990
      97         3         1         0      7.3398339625739997     24.1580035724850010     29.9508277056819980
      98         3         1         0     36.7855501543109970      7.1575115256429998     29.9508277109259990
      99         1         1         0     11.4475022023350000     22.6555526567410010     25.2910000000000000
     100         1         1         0     40.8932183945509990      5.6550606145720002     25.2910000000000000
     101         2         1         0     10.6348522949020000     21.2537361574379990     27.6418581873540000
     102         2         1         0     40.0805684929899970      4.2532441046190002     27.6418581900000010
     103         3         1         0     12.3011149766250000     24.1630593120010000     29.9514169596350010
     104         3         1         0     41.7468311622469980      7.1625672366639996     29.9514169612640020
     105         1         1         0      8.9989134709090006     21.2416738027080000     25.2910000000000000
     106         1         1         0     38.4446296729730010      4.2411817633539997     25.2910000000000000
     107         3         1         0      9.8190140358610005     22.7366060098699980     29.9553857576740010
     108         3         1         0     39.2647302317000000      5.7361139431749999     29.9553857599489990
     109         3         1         0      9.8160336301440001     19.8727717674410020     29.9588665666130010
     110         3         1         0     39.2617498425540030      2.8722796865119999     29.9588665663690000
     111         4         3         0     24.9782869845450010     12.3689294330790000     34.3189496311490030
     112         4         3         0     54.4240032060980000     29.3694216981050000     34.3189496322699980
     113         4         3         0     22.2962410162390010     10.8321713258360010     34.3443126920980010
     114         4         3         0     51.7419572350219990     27.8326635885199990     34.3443126975580030
     115         4         3         0     19.6156747256640000      9.2945712839799999     34.3683875144489970
     116         4         3         0     49.0613909440389970     26.2950635389569990     34.3683875204540000
     117         4         3         0     16.9375084324850000      7.7539350259289996     34.3830410507760010
     118         4         3         0     46.3832246523730020     24.7544272673350000     34.3830410518090020
     119         4         3         0     22.3056892642859990      7.7427560046780002     34.3588364945009990
     120         4         3         0     51.7514054805239990     24.7432482668660010     34.3588364981890000
     121         4         3         0     19.6229250390059990      6.2025418388010003     34.3766665921810030
     122         4         3         0     49.0686412573789990     23.2030340924279980     34.3766665959280000
     123         4         3         0      3.5736327708080000     30.8987312867580000     34.3089295738899980
     124         4         3         0     33.0193490142140010     13.8982390411060010     34.3089295826929970
     125         4         3         0     19.6284671042940000      3.1035642898770002     34.3827154950250030
     126         4         3         0     49.0741833282760000     20.1040565421720000     34.3827154964560010
     127         4         3         0      6.2484094859569996     29.3445721344190000     34.3341732332900020
     128         4         3         0     35.6941257308780000     12.3440799061090000     34.3341732469850030
     129         4         3         0      8.9198959502689998     27.7924164645829990     34.3605636897549970
     130         4         3         0     38.3656121961500030     10.7919242575139990     34.3605637021739980
     131         4         3         0      6.2537331004320000     26.2485817193810010     34.3558920209200020
     132         4         3         0     35.6994493476950010      9.2480894976220007     34.3558920363930010
     133         4         3         0     11.5899660386090010     26.2440259668850010     34.3800608625279980
     134         4         3         0     41.0356822850990000      9.2435337821410002     34.3800608689220010
     135         4         3         0      8.9233221144060000     24.7004631884550000     34.3765305009349970
     136         4         3         0     38.3690383604729990      7.6999709879470002     34.3765305102890010
     137         4         3         0     11.5908745502010010     23.1566292723689990     34.3878238924420000
     138         4         3         0     41.0365907950880030      6.1561370929950003     34.3878238940019970
     139         4         3         0      8.9259212595499999     21.6167808501049980     34.3870621800310020
     140         4         3         0     38.3716375026730030      4.6162886546950004     34.3870621830590010
     141         4         4         0     25.8803062651429980     13.9183341770730000     35.8681213950429980
     142         4         4         0     55.3260224933000020     30.9188264396760000     35.8681213956740020
     143         4         2         0     25.8625091480639990     13.9076045784229990     32.7408151824850010
     144         4         2         0     55.3082253709539980     30.9080968436850010     32.7408151833050030
     145         4         4         0     23.2021527970509990     12.3803487948130010     35.8920073231790010
     146         4         4         0     52.6478690209990030     29.3808410572760010     35.8920073273310010
     147         4         2         0     23.1757333499840000     12.3705079201110010     32.7645896674520000
     148         4         2         0     52.6214495689090000     29.3710001822980010     32.7645896717720010
     149         4         4         0     20.5208086005630010     10.8414246831130010     35.9182509101149990
     150         4         4         0     49.9665248201409970     27.8419169391520000     35.9182509165679990
     151         4         2         0     20.4942640943080010     10.8354064646800000     32.7906849783939980
     152         4         2         0     49.9399803131390030     27.8358987208069980     32.7906849849199990
     153         4         4         0     17.8375506904900010      9.2993125163340000     35.9384709041270010
     154         4         4         0     47.2832669070630020     26.2998047599160000     35.9384709077120020
     155         4         2         0     17.8193408704559990      9.2995249019589998     32.8107571174000010
     156         4         2         0     47.2650570920250030     26.3000171470589980     32.8107571210629980
     157         4         4         0     23.2071361165909980      9.2951957272710004     35.9062068780329970
     158         4         4         0     52.6528523364290000     26.2956879889630000     35.9062068812920000
     159         4         2         0     23.1889991115719990      9.2808912600130000     32.7792745198339970
     160         4         2         0     52.6347153239950030     26.2813835242370000     32.7792745232610020
     161         4         4         0     20.5241656616470000      7.7529834014940002     35.9280526971439970
     162         4         4         0     49.9698818790139970     24.7534756560890020     35.9280527023639990
     163         4         2         0     20.5065016968040010      7.7462908779410000     32.8014233685389980
     164         4         2         0     49.9522179124410000     24.7467831352950010     32.8014233738250030
     165         4         4         0     17.8381259067920010      6.2061332794400004     35.9416839419169990
     166         4         4         0     47.2838421234630030     23.2066255208100000     35.9416839434709980
     167         4         2         0     17.8286687867250000      6.2080639352710003     32.8152470054150030
     168         4         2         0     47.2743850079880020     23.2085561791160020     32.8152470070520010
     169         4         4         0     20.5263266171310010      4.6563247043429996     35.9372948873120000
     170         4         4         0     49.9720428376780030     21.6568169588639990     35.9372948898639990
     171         4         2         0     20.5185070964940020      4.6511201662069999     32.8117476900030030
     172         4         2         0     49.9642233154320010     21.6516124230940010     32.8117476926019980
     173         4         4         0      4.4567439846610002     29.3608562441260010     35.8842243788700020
     174         4         4         0     33.9024602301060010     12.3603640070599990     35.8842243927489970
     175         4         2         0      4.4752033731270000     29.3357210298530010     32.7565840462649970
     176         4         2         0     33.9209196203159990     12.3352287843690010     32.7565840596899990
     177         4         4         0      7.1294073937969999     27.8078118809060020     35.9110144107940030
     178         4         4         0     36.5751236422869970     10.8073196595599990     35.9110144257499970
     179         4         2         0      7.1484695798860001     27.7817183996379990     32.7828558368619980
     180         4         2         0     36.5941858255660010     10.7812261757210010     32.7828558511670000
     181         4         4         0      9.8028591661140005     26.2549462071510010     35.9341551936939960
     182         4         4         0     39.2485754161100000      9.2544540045130006     35.9341552037889970
     183         4         2         0      9.8158534266329998     26.2341434410130000     32.8054504425640020
     184         4         2         0     39.2615696711029970      9.2336512411479994     32.8054504519869990
     185         4         4         0      7.1375010299469999     24.7146681359859990     35.9311277835499960
     186         4         4         0     36.5832172791499990      7.7141759167060000     35.9311277960700010
     187         4         2         0      7.1517030871639999     24.6910413589790000     32.8018913604740020
     188         4         2         0     36.5974193323379990      7.6905491451360000     32.8018913722349980
     189         4         4         0     12.4781579544010000     24.7047717754130010     35.9473417449439980
     190         4         4         0     41.9238742047480030      7.7042795932920001     35.9473417473220000
     191         4         2         0     12.4800813151710010     24.6922849382720000     32.8182977382650020
     192         4         2         0     41.9257975588449980      7.6917927609259999     32.8182977401130030
     193         4         4         0      9.8092312710120009     23.1644965596239980     35.9464268173589970
     194         4         4         0     39.2549475192310030      6.1640043604989998     35.9464268222600010
     195         4         2         0      9.8159136159549991     23.1495726933640000     32.8165203373210020
     196         4         2         0     39.2616298586659980      6.1490805009290002     32.8165203416119980
     197         4         4         0      9.8137030605280007     20.0804777996950000     35.9530141639430030
     198         4         4         0     39.2594193031490020      3.0799856042860001     35.9530141631739970
     199         4         2         0      9.8155096822240004     20.0731130101200000     32.8222582724740020
     200         4         2         0     39.2612259219770010      3.0726208214400001     32.8222582713380010
     201         1         1         0      4.0915773235359998     32.5808808126249970     25.2910000000000000
     202         1         1         0     33.5372935559139980     15.5803887369470000     25.2910000000000000
     203         2         1         0      5.7335156177710003     32.5833446254589990     27.6046104387990000
     204         2         1         0     35.1792318482110030     15.5828525866010000     27.6046104408470010
     205         3         1         0      2.4492098997660001     32.5967730454780020     29.9211710784869990
     206         3         1         0     31.8949261240369990     15.5962810218720000     29.9211710778040010
     207         1         1         0      6.5443976567939997     31.1595147273739990     25.2910000000000000
     208         1         1         0     35.9901138780800030     14.1590226720080000     25.2910000000000000
     209         2         1         0      8.1888041114440000     31.1661709786230010     27.6059563795029990
     210         2         1         0     37.6345203285579970     14.1656789475139990     27.6059563855919980
     211         3         1         0      4.9068077604309996     31.2023667064880000     29.9236548376720000
     212         3         1         0     34.3525239713310030     14.2018747043359990     29.9236548411500000
     213         1         1         0      8.9960386149680005     29.7383707302089990     25.2910000000000000
     214         1         1         0     38.4417548235360020     12.7378786853089990     25.2910000000000000
     215         2         1         0     10.6417067213590000     29.7496927038660000     27.6088827474090020
     216         2         1         0     40.0874229237039970     12.7492006671410000     27.6088827550100010
     217         3         1         0      7.3701096761520004     29.8088129090360000     29.9286680580010010
     218         3         1         0     36.8158258758889970     12.8083209069310000     29.9286680659119990
     219         1         1         0     11.4468794669320000     28.3188303074830010     25.2910000000000000
     220         1         1         0     40.8925956636370030     11.3183382620120000     25.2910000000000000
     221         2         1         0     13.0924946985140010     28.3342686309530020     27.6118593685430010
     222         2         1         0     42.5382108873020000     11.3337765755529990     27.6118593740240000
     223         3         1         0      9.8363986384259992     28.4088527545210000     29.9351896357490010
     224         3         1         0     39.2821148287579970     11.4083607329190000     29.9351896442380010
     225         1         1         0     13.8974968403780000     26.9015328762040010     25.2910000000000000
     226         1         1         0     43.3432130287109980      9.9010408187230006     25.2910000000000000
     227         3         1         0     12.3035700797319990     26.9994580856970000     29.9405264435539990
     228         3         1         0     41.7492862620480030      9.9989660310359998     29.9405264482950000
     229         1         1         0      8.9947653190229993     32.5793639923469980     25.2910000000000000
     230         1         1         0     38.4404815508669980     15.5788719451090000     25.2910000000000000
     231         2         1         0     10.6432377710060000     32.5834057103090020     27.5985063823550010
     232         2         1         0     40.0889540004160030     15.5829136742509990     27.5985063851810000
     233         3         1         0      7.3819809188590000     32.6058371959960030     29.9191051091099990
     234         3         1         0     36.8276971446190020     15.6053452070260000     29.9191051114690010
     235         1         1         0     11.4460070079000000     31.1576708894099990     25.2910000000000000
     236         1         1         0     40.8917232262019970     14.1571788404669990     25.2910000000000000
     237         2         1         0     13.0942177489750000     31.1664090255390000     27.5979293934729990
     238         2         1         0     42.5399339622220010     14.1659169713280000     27.5979293979900010
     239         3         1         0      9.8475244071189998     31.2117936011220000     29.9208612934530010
     240         3         1         0     39.2932406176229990     14.2113015981630010     29.9208613000150020
     241         1         1         0     13.8977466291420000     29.7375224049729990     25.2910000000000000
     242         1         1         0     43.3434628346009990     12.7370303436480000     25.2910000000000000
     243         2         1         0     15.5436875923050000     29.7507716845309990     27.5982403603869990
     244         2         1         0     44.9894037907549990     12.7502796013930000     27.5982403626189980
     245         3         1         0     12.3089048272330000     29.8127603074669980     29.9246433091240010
     246         3         1         0     41.7546210228790000     12.8122682720429990     29.9246433159359990
     247         3         1         0     14.7656182600050010     28.4058445299700000     29.9276679505530010
     248         3         1         0     44.2113344421020000     11.4053524508330000     29.9276679527589980
     249         2         1         0      0.8179786289030000      4.2547662876099999     27.6071450930860000
     250         2         1         0     30.2636948960340000     21.2552585923370000     27.6071450887309990
     251         1         1         0     13.8976279968980010     32.5789616537700010     25.2910000000000000
     252         1         1         0     43.3433442289819980     15.5784695891170010     25.2910000000000000
     253         2         1         0     15.5449386544789990     32.5837876849319980     27.5873792904430000
     254         2         1         0     44.9906548839569990     15.5832956010090000     27.5873792916360010
     255         3         1         0     12.3137283725350000     32.6073227148520030     29.9114870314190000
     256         3         1         0     41.7594445986140030     15.6068306905080000     29.9114870342279990
     257         1         1         0     16.3518229998460000     31.1582883700499980     25.2910000000000000
     258         1         1         0     45.7975392189609990     14.1577962823110010     25.2910000000000000
     259         3         1         0     14.7650884123809990     31.2099008534080010     29.9110314520589990
     260         3         1         0     44.2108046199450020     14.2094087853740000     29.9110314551400020
     261         2         1         0      0.8165977266080000      7.0900235117759998     27.6116773064380010
     262         2         1         0     30.2623140005939990     24.0905158193110010     27.6116772993589980
     263         1         1         0      1.6417813100980001      5.6746739530469998     25.2910000000000000
     264         1         1         0     31.0874975777569990     22.6751662461260000     25.2910000000000000
     265         3         1         0     17.2039815570750000     32.6045310376339970     29.8984969017449980
     266         3         1         0     46.6496977834249980     15.6040389210019990     29.8984969017220020
     267         2         1         0      0.8152995710280000      9.9235307660330001     27.6175044896780020