LAMMPS (10 Sep 2025 - Development - patch_10Sep2025-285-g0b912432e9-modified)
Running on 2 partitions of processors
