LAMMPS (10 Sep 2025 - Development - patch_10Sep2025-385-g4714d8fc87)
Running on 4 partitions of processors
