LAMMPS (10 Sep 2025 - Development - patch_10Sep2025-15-gdec0919f2b-modified)
Running on 4 partitions of processors
